     704
 i =        4, E =     -3994.0659841756
C         0.0025942461        6.8162834547        9.9999463795
C         0.0025943461        7.7487379260        7.7487377541
C         0.0025944334        7.7487079408       12.2512047681
C         0.0025943240        9.9999463399        6.8162849970
C         0.0025938641        9.9999424215       13.1837532269
C         0.0025944131       12.2512053215        7.7487073335
C         0.0025957529       12.2512061017       12.2512060773
C         0.0025938278       13.1837532505        9.9999424862
C         1.4227577188        6.8163278881        9.9999461219
C         1.4227577563        7.7487685159        7.7487686196
C         1.4227576365        7.7487379734       12.2511748695
C         1.4227577825        9.9999462527        6.8163263392
C         1.4227583578        9.9999426204       13.1837089902
C         1.4227576319       12.2511739303        7.7487390668
C         1.4227560052       12.2511748758       12.2511749646
C         1.4227583221       13.1837097251        9.9999425873
C         2.1406942313        7.0585846859        8.7815928941
C         2.1406918099        7.0586250749       11.2183027944
C         2.1406941069        8.7815933614        7.0585855318
C         2.1406939272        8.7816151885       12.9412951290
C         2.1406918113       11.2183027223        7.0586249306
C         2.1406944748       11.2182679673       12.9412462234
C         2.1406939785       12.9412956433        8.7816152340
C         2.1406944405       12.9412456359       11.2182676962
C         3.5608525781        7.0585032170        8.7815593081
C         3.5608542864        7.0585416801       11.2183372226
C         3.5608524377        8.7815585475        7.0585016285
C         3.5608528015        8.7815808169       12.9413781435
C         3.5608543008       11.2183371546        7.0585422579
C         3.5608522869       11.2183012627       12.9413273064
C         3.5608528704       12.9413771353        8.7815810195
C         3.5608522128       12.9413286069       11.2183018449
C         4.2787304260        6.8162546406        9.9999465630
C         4.2787305350        7.7487176070        7.7487173934
C         4.2787305294        7.7486875610       12.2512249035
C         4.2787303228        9.9999463429        6.8162557161
C         4.2787301786        9.9999423029       13.1837822260
C         4.2787307547       12.2512256119        7.7486867409
C         4.2787317457       12.2512271359       12.2512269698
C         4.2787299317       13.1837822774        9.9999424753
C         5.6988946051        6.8163643062        9.9999460964
C         5.6988946601        7.7487941269        7.7487943118
C         5.6988944328        7.7487631792       12.2511496319
C         5.6988944841        9.9999462774        6.8163627787
C         5.6988953834        9.9999427418       13.1836725869
C         5.6988946902       12.2511480757        7.7487648518
C         5.6988926914       12.2511487740       12.2511489087
C         5.6988951208       13.1836734535        9.9999426059
C         6.4168381445        7.0585724327        8.7815878285
C         6.4168355763        7.0586129907       11.2183078834
C         6.4168377649        8.7815882671        7.0585731570
C         6.4168376786        8.7816101767       12.9413070376
C         6.4168356553       11.2183078314        7.0586123037
C         6.4168384326       11.2182732320       12.9412586588
C         6.4168378632       12.9413077637        8.7816103043
C         6.4168381481       12.9412580630       11.2182728551
C         7.8369971549        7.0584913737        8.7815544675
C         7.8369986902        7.0585296879       11.2183421717
C         7.8369967394        8.7815537522        7.0584899466
C         7.8369971883        8.7815759787       12.9413899936
C         7.8369987796       11.2183417722        7.0585310117
C         7.8369968921       11.2183061702       12.9413390460
C         7.8369974025       12.9413891289        8.7815759739
C         7.8369965655       12.9413409671       11.2183070225
C         8.5548742865        6.8162689599        9.9999466435
C         8.5548742640        7.7487278467        7.7487275543
C         8.5548741536        7.7486976863       12.2512148062
C         8.5548740020        9.9999462445        6.8162692883
C         8.5548739600        9.9999422882       13.1837681216
C         8.5548745817       12.2512157196        7.7486966577
C         8.5548756081       12.2512170458       12.2512166952
C         8.5548736468       13.1837673678        9.9999425524
C         9.9750395445        6.8163597961        9.9999461430
C         9.9750394691        7.7487909026        7.7487911526
C         9.9750391366        7.7487599503       12.2511528155
C         9.9750392458        9.9999463924        6.8163586962
C         9.9750402536        9.9999428101       13.1836768805
C         9.9750395977       12.2511510206        7.7487617448
C         9.9750376173       12.2511520692       12.2511522236
C         9.9750399140       13.1836782779        9.9999425910
C        10.6929832624        7.0585763041        8.7815894378
C        10.6929806319        7.0586166064       11.2183064709
C        10.6929827143        8.7815898675        7.0585769941
C        10.6929826689        8.7816117499       12.9413031049
C        10.6929808504       11.2183064516        7.0586155730
C        10.6929835831       11.2182717782       12.9412550538
C        10.6929828909       12.9413038082        8.7816119613
C        10.6929831558       12.9412542722       11.2182712195
C        12.1131434927        7.0584901943        8.7815540811
C        12.1131449547        7.0585288941       11.2183424288
C        12.1131429147        8.7815533335        7.0584888593
C        12.1131434026        8.7815756409       12.9413908317
C        12.1131451805       11.2183420999        7.0585302714
C        12.1131432537       11.2183065736       12.9413400469
C        12.1131436490       12.9413898960        8.7815755999
C        12.1131427865       12.9413418603       11.2183074267
C        12.8310213206        6.8162703487        9.9999466319
C        12.8310211845        7.7487293683        7.7487290661
C        12.8310209718        7.7486986634       12.2512138253
C        12.8310208868        9.9999461625        6.8162706104
C        12.8310209358        9.9999422555       13.1837665111
C        12.8310215551       12.2512149407        7.7486974938
C        12.8310225292       12.2512160621       12.2512156950
C        12.8310205215       13.1837656554        9.9999425563
C        14.2511876624        6.8163609926        9.9999461577
C        14.2511874779        7.7487917167        7.7487919850
C        14.2511870554        7.7487609345       12.2511517952
C        14.2511872248        9.9999463922        6.8163600614
C        14.2511883209        9.9999428266       13.1836757166
C        14.2511876509       12.2511500941        7.7487626640
C        14.2511856150       12.2511512276       12.2511513911
C        14.2511878902       13.1836767779        9.9999425856
C        14.9691322481        7.0585757819        8.7815891957
C        14.9691296066        7.0586159612       11.2183067782
C        14.9691317275        8.7815897524        7.0585767514
C        14.9691317180        8.7816116979       12.9413031611
C        14.9691297955       11.2183067177        7.0586148749
C        14.9691325465       11.2182720213       12.9412555998
C        14.9691318945       12.9413042768        8.7816117735
C        14.9691321340       12.9412546972       11.2182714079
C        16.3892933128        7.0584913596        8.7815545199
C        16.3892947639        7.0585302248       11.2183418920
C        16.3892927814        8.7815538629        7.0584899833
C        16.3892932984        8.7815760072       12.9413897442
C        16.3892949514       11.2183417685        7.0585309901
C        16.3892930549       11.2183063211       12.9413392836
C        16.3892934901       12.9413886494        8.7815762290
C        16.3892926085       12.9413406087       11.2183068971
C        17.1071720193        6.8162697061        9.9999466021
C        17.1071720816        7.7487293967        7.7487290339
C        17.1071718505        7.7486982802       12.2512141688
C        17.1071718423        9.9999462376        6.8162708138
C        17.1071716737        9.9999422996       13.1837665071
C        17.1071721983       12.2512151463        7.7486972409
C        17.1071734297       12.2512160431       12.2512157007
C        17.1071714583       13.1837659382        9.9999426083
C        18.5273389152        6.8163609764        9.9999462478
C        18.5273389348        7.7487917461        7.7487919530
C        18.5273384984        7.7487614312       12.2511512412
C        18.5273387447        9.9999463698        6.8163595778
C        18.5273396222        9.9999427347       13.1836758791
C        18.5273388419       12.2511504892        7.7487622756
C        18.5273370708       12.2511514540       12.2511515422
C        18.5273393954       13.1836762627        9.9999425942
C        19.2452840884        7.0585758309        8.7815893065
C        19.2452817007        7.0586157968       11.2183067403
C        19.2452838207        8.7815898792        7.0585769563
C        19.2452837963        8.7816117653       12.9413031467
C        19.2452818402       11.2183064247        7.0586157955
C        19.2452844123       11.2182718489       12.9412553365
C        19.2452838813       12.9413039525        8.7816117205
C        19.2452841703       12.9412549983       11.2182715905
C        20.6654454557        7.0584918776        8.7815546521
C        20.6654471898        7.0585306796       11.2183417354
C        20.6654451949        8.7815542242        7.0584910662
C        20.6654457126        8.7815760937       12.9413893130
C        20.6654473164       11.2183420010        7.0585304206
C        20.6654452267       11.2183061918       12.9413388854
C        20.6654458077       12.9413885604        8.7815764138
C        20.6654449616       12.9413389358       11.2183062149
C        21.3833244118        6.8162687021        9.9999465069
C        21.3833246402        7.7487282385        7.7487280719
C        21.3833244904        7.7486974130       12.2512150094
C        21.3833242343        9.9999463683        6.8162696441
C        21.3833241365        9.9999423434       13.1837671860
C        21.3833246970       12.2512152169        7.7486971866
C        21.3833257968       12.2512173577       12.2512172572
C        21.3833239630       13.1837678534        9.9999425133
C        22.8034914415        6.8163617327        9.9999463183
C        22.8034916289        7.7487925410        7.7487925142
C        22.8034912573        7.7487625317       12.2511501592
C        22.8034912699        9.9999462576        6.8163609424
C        22.8034922111        9.9999426717       13.1836752564
C        22.8034914501       12.2511503438        7.7487624342
C        22.8034895746       12.2511503938       12.2511502693
C        22.8034920397       13.1836745646        9.9999427173
C        23.5214368505        7.0585756629        8.7815892594
C        23.5214345458        7.0586147406       11.2183070675
C        23.5214369070        8.7815895954        7.0585761806
C        23.5214367206        8.7816115197       12.9413040436
C        23.5214345377       11.2183066127        7.0586154049
C        23.5214371110       11.2182720060       12.9412557813
C        23.5214366908       12.9413043421        8.7816114768
C        23.5214372149       12.9412562170       11.2182721275
C        24.9415982190        7.0584911623        8.7815543457
C        24.9416000556        7.0585306848       11.2183418663
C        24.9415982908        8.7815542516        7.0584908133
C        24.9415986413        8.7815759117       12.9413894430
C        24.9416000291       11.2183420394        7.0585298136
C        24.9415979284       11.2183064440       12.9413392858
C        24.9415986166       12.9413895303        8.7815761399
C        24.9415980204       12.9413390379       11.2183062757
C        25.6594771283        6.8162692042        9.9999464697
C        25.6594773829        7.7487283198        7.7487282717
C        25.6594776070        7.7486975432       12.2512148760
C        25.6594774223        9.9999464778        6.8162701043
C        25.6594767985        9.9999424150       13.1837667353
C        25.6594772640       12.2512144070        7.7486979555
C        25.6594787337       12.2512170987       12.2512171476
C        25.6594769598       13.1837673291        9.9999424246
C        27.0796441296        6.8163616707        9.9999463984
C        27.0796443353        7.7487925695        7.7487924627
C        27.0796443394        7.7487624964       12.2511501030
C        27.0796444272        9.9999462363        6.8163609632
C        27.0796448358        9.9999426314       13.1836754310
C        27.0796439851       12.2511507315        7.7487619127
C        27.0796424759       12.2511503255       12.2511501284
C        27.0796449972       13.1836750216        9.9999428276
C        27.7975893617        7.0585756473        8.7815892762
C        27.7975873342        7.0586142226       11.2183071552
C        27.7975896570        8.7815892367        7.0585756219
C        27.7975893390        8.7816114358       12.9413045034
C        27.7975872400       11.2183068440        7.0586153277
C        27.7975896707       11.2182719906       12.9412560184
C        27.7975891701       12.9413039615        8.7816114911
C        27.7975900082       12.9412567239       11.2182723296
C        29.2177506933        7.0584906890        8.7815541607
C        29.2177527998        7.0585310640       11.2183417379
C        29.2177509863        8.7815544951        7.0584912663
C        29.2177512023        8.7815760113       12.9413890888
C        29.2177526880       11.2183418117        7.0585302544
C        29.2177504377       11.2183064245       12.9413390635
C        29.2177510500       12.9413903164        8.7815757922
C        29.2177507690       12.9413389085       11.2183062809
C        29.9356299540        6.8162702217        9.9999463261
C        29.9356300028        7.7487285542        7.7487287017
C        29.9356303285        7.7486974891       12.2512149944
C        29.9356300434        9.9999464994        6.8162693503
C        29.9356293872        9.9999424535       13.1837663306
C        29.9356300589       12.2512136109        7.7486989694
C        29.9356314546       12.2512170314       12.2512171569
C        29.9356296668       13.1837661895        9.9999422663
C        31.3557969217        6.8163602334        9.9999464823
C        31.3557969163        7.7487920098        7.7487917182
C        31.3557970228        7.7487618782       12.2511506604
C        31.3557970080        9.9999461775        6.8163611596
C        31.3557973847        9.9999426353       13.1836766845
C        31.3557967561       12.2511519557        7.7487605417
C        31.3557951630       12.2511508200       12.2511506045
C        31.3557976562       13.1836770057        9.9999429540
C        32.0737419441        7.0585770615        8.7815898236
C        32.0737400660        7.0586150014       11.2183068292
C        32.0737423111        8.7815892248        7.0585757759
C        32.0737419497        8.7816119699       12.9413033618
C        32.0737398794       11.2183066394        7.0586159721
C        32.0737423426       11.2182714235       12.9412548839
C        32.0737417812       12.9413019025        8.7816123988
C        32.0737426761       12.9412557852       11.2182718655
C        33.4939032791        7.0584901172        8.7815539818
C        33.4939055097        7.0585314417       11.2183416225
C        33.4939036513        8.7815545207        7.0584909888
C        33.4939038122        8.7815757185       12.9413895649
C        33.4939053256       11.2183416643        7.0585304535
C        33.4939031204       11.2183068386       12.9413398734
C        33.4939036438       12.9413909176        8.7815755433
C        33.4939034339       12.9413393312       11.2183064796
C        34.2117823929        6.8162695381        9.9999462409
C        34.2117825138        7.7487288900        7.7487290684
C        34.2117828325        7.7486969429       12.2512156699
C        34.2117826688        9.9999464972        6.8162686096
C        34.2117818463        9.9999424530       13.1837658801
C        34.2117824111       12.2512140280        7.7486986359
C        34.2117840448       12.2512169741       12.2512171092
C        34.2117821422       13.1837662126        9.9999422416
C        35.6319493727        6.8163615807        9.9999465135
C        35.6319494462        7.7487921898        7.7487919428
C        35.6319495540        7.7487627147       12.2511497259
C        35.6319496441        9.9999462300        6.8163622140
C        35.6319498596        9.9999426616       13.1836760810
C        35.6319491370       12.2511509534        7.7487615190
C        35.6319477670       12.2511502806       12.2511501012
C        35.6319501524       13.1836761941        9.9999429099
C        36.3498944822        7.0585764449        8.7815895201
C        36.3498926842        7.0586138508       11.2183072693
C        36.3498948667        8.7815888977        7.0585752460
C        36.3498944686        8.7816117584       12.9413040011
C        36.3498924778       11.2183071592        7.0586148906
C        36.3498948885       11.2182717204       12.9412557275
C        36.3498943590       12.9413026069        8.7816120849
C        36.3498951660       12.9412566138       11.2182721724
C        37.7700558371        7.0584907696        8.7815542838
C        37.7700581490        7.0585320046       11.2183413825
C        37.7700562166        8.7815546055        7.0584913495
C        37.7700563615        8.7815759451       12.9413891363
C        37.7700579501       11.2183414952        7.0585309872
C        37.7700556797       11.2183064948       12.9413391127
C        37.7700562530       12.9413903062        8.7815757904
C        37.7700559462       12.9413386081       11.2183061835
C        38.4879350513        6.8162690424        9.9999462363
C        38.4879352307        7.7487288609        7.7487290605
C        38.4879354225        7.7486967478       12.2512159496
C        38.4879352292        9.9999464531        6.8162684160
C        38.4879345522        9.9999424205       13.1837661895
C        38.4879351261       12.2512143039        7.7486983837
C        38.4879366313       12.2512173262       12.2512174525
C        38.4879347443       13.1837667072        9.9999422542
C        39.9081019900        6.8163616889        9.9999464633
C        39.9081021321        7.7487919182        7.7487917068
C        39.9081020983        7.7487630388       12.2511494896
C        39.9081021624        9.9999462184        6.8163621011
C        39.9081025290        9.9999426474       13.1836759734
C        39.9081018100       12.2511506360        7.7487618889
C        39.9081003251       12.2511503659       12.2511501607
C        39.9081027158       13.1836757324        9.9999428404
C        40.6260472739        7.0585768458        8.7815896477
C        40.6260452322        7.0586138760       11.2183072598
C        40.6260475551        8.7815891346        7.0585757978
C        40.6260471741        8.7816117452       12.9413040573
C        40.6260450705       11.2183070826        7.0586148364
C        40.6260475775       11.2182716313       12.9412553620
C        40.6260470667       12.9413030305        8.7816119307
C        40.6260477867       12.9412563993       11.2182720976
C        42.0462085782        7.0584903046        8.7815540340
C        42.0462106440        7.0585314764       11.2183416376
C        42.0462088500        8.7815543410        7.0584908644
C        42.0462090328        8.7815757675       12.9413896997
C        42.0462104980       11.2183416690        7.0585306896
C        42.0462083150       11.2183066962       12.9413397386
C        42.0462089174       12.9413903213        8.7815758052
C        42.0462085145       12.9413388795       11.2183062235
C        42.7640875872        6.8162695605        9.9999463050
C        42.7640879362        7.7487290479        7.7487292027
C        42.7640881001        7.7486974328       12.2512152535
C        42.7640877862        9.9999464557        6.8162691030
C        42.7640873304        9.9999424305       13.1837654811
C        42.7640878232       12.2512140228        7.7486986210
C        42.7640891325       12.2512169519       12.2512170881
C        42.7640874196       13.1837666146        9.9999422804
C        44.1842545841        6.8163612806        9.9999463469
C        44.1842548877        7.7487916600        7.7487915616
C        44.1842548302        7.7487625726       12.2511500350
C        44.1842547794        9.9999461966        6.8163615668
C        44.1842553613        9.9999426239       13.1836766821
C        44.1842545590       12.2511510995        7.7487615403
C        44.1842528872       12.2511506240       12.2511504429
C        44.1842554473       13.1836759692        9.9999427574
C        44.9022000716        7.0585768741        8.7815897057
C        44.9021977363        7.0586142173       11.2183070715
C        44.9022001442        8.7815892096        7.0585759231
C        44.9021998426        8.7816117029       12.9413041110
C        44.9021976681       11.2183068967        7.0586152558
C        44.9022002411       11.2182715542       12.9412550832
C        44.9021998173       12.9413031881        8.7816118359
C        44.9022003612       12.9412561423       11.2182720260
C        46.3223614250        7.0584900446        8.7815538541
C        46.3223632022        7.0585315349       11.2183415783
C        46.3223614879        8.7815542498        7.0584909123
C        46.3223617373        8.7815760765       12.9413892188
C        46.3223631396       11.2183417276        7.0585307987
C        46.3223610195       11.2183064940       12.9413395720
C        46.3223617087       12.9413902339        8.7815758118
C        46.3223611489       12.9413388897       11.2183061620
C        47.0402403050        6.8162697569        9.9999463076
C        47.0402406968        7.7487287661        7.7487289037
C        47.0402406135        7.7486971044       12.2512155030
C        47.0402402776        9.9999464472        6.8162690943
C        47.0402400611        9.9999424493       13.1837665656
C        47.0402405858       12.2512142944        7.7486983293
C        47.0402416202       12.2512171379       12.2512172553
C        47.0402400976       13.1837669931        9.9999422916
C        48.4604072878        6.8163614723        9.9999462716
C        48.4604076187        7.7487920276        7.7487919616
C        48.4604073371        7.7487628196       12.2511499199
C        48.4604072699        9.9999461615        6.8163620582
C        48.4604080701        9.9999425987       13.1836760527
C        48.4604073075       12.2511510447        7.7487617699
C        48.4604053598       12.2511498811       12.2511498033
C        48.4604081018       13.1836754686        9.9999426762
C        49.1783527200        7.0585760326        8.7815893845
C        49.1783502527        7.0586142838       11.2183071119
C        49.1783526968        8.7815889858        7.0585752335
C        49.1783525396        8.7816114737       12.9413045006
C        49.1783502028       11.2183069420        7.0586151215
C        49.1783528910       11.2182718092       12.9412557153
C        49.1783525811       12.9413038865        8.7816115679
C        49.1783527754       12.9412567545       11.2182722901
C        50.5985140499        7.0584904870        8.7815539971
C        50.5985157061        7.0585318776       11.2183413794
C        50.5985140321        8.7815543004        7.0584912501
C        50.5985144113        8.7815760074       12.9413895713
C        50.5985156648       11.2183417057        7.0585311507
C        50.5985136571       11.2183065629       12.9413399011
C        50.5985144350       12.9413900288        8.7815758439
C        50.5985135591       12.9413386266       11.2183060176
C        51.3163929601        6.8162697416        9.9999463113
C        51.3163934369        7.7487286542        7.7487287665
C        51.3163931931        7.7486974211       12.2512152216
C        51.3163928790        9.9999464701        6.8162697092
C        51.3163928754        9.9999424637       13.1837659916
C        51.3163933418       12.2512144053        7.7486981904
C        51.3163943588       12.2512162877       12.2512164046
C        51.3163927296       13.1837668497        9.9999423419
C        52.7365599443        6.8163610690        9.9999461630
C        52.7365603366        7.7487912507        7.7487913482
C        52.7365599129        7.7487623833       12.2511503773
C        52.7365598781        9.9999462275        6.8163612961
C        52.7365608590        9.9999425690       13.1836774077
C        52.7365600438       12.2511514928        7.7487613737
C        52.7365581070       12.2511508147       12.2511508747
C        52.7365607248       13.1836765109        9.9999425209
C        53.4545055085        7.0585764169        8.7815895177
C        53.4545028511        7.0586151043       11.2183067623
C        53.4545052337        8.7815893765        7.0585761818
C        53.4545051283        8.7816116854       12.9413039681
C        53.4545029312       11.2183065994        7.0586159304
C        53.4545056545       11.2182713328       12.9412546634
C        53.4545052960       12.9413035413        8.7816117234
C        53.4545053265       12.9412553116       11.2182716643
C        54.8746668285        7.0584905098        8.7815540281
C        54.8746683269        7.0585322008       11.2183411784
C        54.8746665756        8.7815541942        7.0584911751
C        54.8746670042        8.7815761299       12.9413895421
C        54.8746684135       11.2183416616        7.0585315040
C        54.8746664161       11.2183064746       12.9413398692
C        54.8746671356       12.9413900618        8.7815757582
C        54.8746661381       12.9413386700       11.2183060678
C        55.5925455310        6.8162689446        9.9999463102
C        55.5925458938        7.7487281089        7.7487281563
C        55.5925455910        7.7486971543       12.2512155608
C        55.5925453793        9.9999463823        6.8162696682
C        55.5925453778        9.9999424292       13.1837671431
C        55.5925459025       12.2512152614        7.7486974138
C        55.5925469402       12.2512163913       12.2512164728
C        55.5925450968       13.1837674423        9.9999423713
C        57.0127125201        6.8163622231        9.9999461219
C        57.0127127741        7.7487914727        7.7487916617
C        57.0127123137        7.7487629883       12.2511497805
C        57.0127124006        9.9999463083        6.8163620201
C        57.0127133514        9.9999426274       13.1836765655
C        57.0127125938       12.2511507965        7.7487620323
C        57.0127107032       12.2511500613       12.2511502071
C        57.0127130892       13.1836758273        9.9999424997
C        57.7306581054        7.0585757113        8.7815891251
C        57.7306555001        7.0586148703       11.2183069221
C        57.7306578020        8.7815894166        7.0585763659
C        57.7306576035        8.7816114446       12.9413045487
C        57.7306556800       11.2183067308        7.0586155809
C        57.7306583224       11.2182716356       12.9412554904
C        57.7306577631       12.9413043687        8.7816114436
C        57.7306579907       12.9412552752       11.2182715710
C        59.1508194094        7.0584899682        8.7815538733
C        59.1508209838        7.0585321820       11.2183411046
C        59.1508191310        8.7815541571        7.0584909413
C        59.1508194563        8.7815761802       12.9413895882
C        59.1508211593       11.2183415599        7.0585318875
C        59.1508190654       11.2183062381       12.9413393097
C        59.1508195820       12.9413905120        8.7815754615
C        59.1508188134       12.9413387118       11.2183061770
C        59.8686983418        6.8162695307        9.9999462397
C        59.8686982731        7.7487281521        7.7487282278
C        59.8686981472        7.7486975179       12.2512152680
C        59.8686980116        9.9999463241        6.8162696152
C        59.8686978032        9.9999423404       13.1837680409
C        59.8686985715       12.2512154890        7.7486973821
C        59.8686996914       12.2512165054       12.2512165526
C        59.8686975630       13.1837669127        9.9999422704
C        61.2888653321        6.8163619016        9.9999461573
C        61.2888651340        7.7487916161        7.7487918447
C        61.2888648776        7.7487628164       12.2511498668
C        61.2888650427        9.9999463938        6.8163633405
C        61.2888657623        9.9999427711       13.1836757905
C        61.2888652515       12.2511505631        7.7487620090
C        61.2888634447       12.2511491074       12.2511493810
C        61.2888655609       13.1836759893        9.9999425336
C        62.0068104495        7.0585749788        8.7815887761
C        62.0068082388        7.0586150852       11.2183068869
C        62.0068101370        8.7815888988        7.0585754882
C        62.0068099367        8.7816113298       12.9413048123
C        62.0068084005       11.2183072478        7.0586144617
C        62.0068108048       11.2182722872       12.9412573568
C        62.0068100384       12.9413047873        8.7816112843
C        62.0068104890       12.9412560094       11.2182717135
C        63.4269717388        7.0584903636        8.7815540319
C        63.4269737193        7.0585324411       11.2183409743
C        63.4269714781        8.7815545913        7.0584917565